 51
*****   Energy =     -723.8077531390  kJ/mol
O    4.4279056   1.3480206  -1.6921554
H    4.2857451   0.8006134  -0.9199069
H    5.2878392   1.7439158  -1.5506871
O    0.3788360  -1.6738495  -0.5472800
H   -0.0928516  -1.4758762  -1.3563223
H    1.2202459  -2.0242533  -0.8396473
O   -1.0377329   2.9210381  -3.6911322
H   -1.3210569   3.6371778  -4.2595542
H   -0.7969752   3.3480737  -2.8689957
O    1.7929865   2.1005716  -1.5622207
H    2.7443400   2.0173121  -1.6272319
H    1.4579392   1.6245444  -2.3220716
O    0.7545668   0.7644508  -3.7043777
H    0.1818644   1.4978709  -3.9287412
H    0.1561472   0.0411279  -3.5174820
O   -3.1566985  -0.2400492   1.3532874
H   -2.7138503  -1.0665432   1.1608686
H   -3.4955076  -0.3504785   2.2416825
O    3.7087886  -0.2535208   0.3474680
H    3.4990645  -1.0655229  -0.1139434
H    2.8682972   0.0531047   0.6877427
O    3.2345737  -0.5232401  -3.3792483
H    3.7468564   0.1674745  -2.9588773
H    2.4426593  -0.0817206  -3.6861099
O   -1.1122404  -1.0501652  -2.7300208
H   -1.6181808  -0.2652135  -2.5200039
H   -1.7415955  -1.7677607  -2.6579040
O   -4.4324701  -0.4977033  -1.1053638
H   -4.1782181  -0.3838463  -0.1895994
H   -3.9560328   0.1877804  -1.5737136
O    2.9173368  -2.2955170  -1.3729692
H    3.0349780  -1.7360333  -2.1406740
H    3.3674345  -3.1097272  -1.5981488
O   -0.3627035   3.7876696  -1.2341242
H   -0.8217186   3.3165666  -0.5387113
H    0.5077392   3.3902579  -1.2591327
O   -1.9820598  -2.5401814   0.5787922
H   -2.4113088  -2.7848191  -0.2410430
H   -1.0764140  -2.3557215   0.3297694
O   -1.4289263   1.6940752   0.3658971
H   -0.5640976   1.3558550   0.5980834
H   -2.0421170   1.1229121   0.8285004
O   -3.1793577  -2.7383662  -1.9221897
H   -3.8075077  -3.3741263  -2.2649268
H   -3.7125129  -1.9817067  -1.6783783
O   -2.4792503   1.1897562  -2.1091328
H   -2.1268798   1.8392289  -2.7176163
H   -2.1175769   1.4371406  -1.2581185
O    1.0909834   0.6560696   0.6196962
H    0.8199075  -0.1839263   0.2493494
H    1.3565417   1.1777478  -0.1376431
51
TIP5P (H2O)17 energy -729.4807 kJ/mol
O    -2.3273107430000000    -2.7145867589999999     0.2361358183000000
H    -2.5062284542469042    -2.3982114898392313     1.1216452658304152
H    -1.4275598759109616    -2.4394036615046342     0.0601969652135359
O     3.8743496589999999    -1.3904197869999999     1.2806745550000000
H     4.3581627466707875    -0.8044890176849040     0.6985733011203342
H     3.3570962286683659    -0.8054106966816583     1.8342493855830611
O    -3.8868742159999998    -1.3703543629999999    -1.3988516390000001
H    -4.4017231415400282    -1.9700714827143695    -1.9387607055952731
H    -3.3188374138385921    -1.9409821725827929    -0.8812128321848748
O     2.8027267530000000    -0.8939132717000000    -2.4043381899999998
H     2.6058900895923625    -1.7092589567318233    -1.9431456251872787
H     1.9499899151544469    -0.4779367039389113    -2.5309684409468893
O    -2.7868011099999999    -1.0462788199999999     2.4052499759999999
H    -3.2569821206843805    -1.2041110172393039     3.2239383506007560
H    -3.3903042481626655    -0.5215844521585574     1.8792161153186895
O     2.3449550590000001     0.5260118227000000     2.4976463849999999
H     1.4050861225230706     0.3755974872637255     2.3963855833984433
H     2.4543955170850476     0.7466936085197208     3.4226081007166855
O    -0.3104819899000000     0.1272684401000000     1.9676225599999999
H    -1.0625324731892789    -0.2293692707713498     2.4403396569711231
H    -0.1704103482110863    -0.4833049366510987     1.2438740354437599
O    -3.2158088910000000     2.2577517700000000    -0.3763472891000000
H    -2.4244039232572745     2.3931021171678437     0.1447959738840672
H    -3.5921035562271060     3.1325719596141699    -0.4729071190762836
O    -4.4700201220000002     0.1922802507000000     0.7805120857000000
H    -4.1384019690419267     1.0268600786185313     0.4492451971340720
H    -4.5441930240129897    -0.3618822328670250     0.0035731161446050
O     2.3689946329999998    -2.7482480210000002    -0.3970134015000000
H     2.5264698499149363    -3.6896310040017406    -0.3246844628077989
H     2.9493007463969945    -2.3569840083921507     0.2559713817775889
O     0.0330170977100000    -1.5297985260000000    -0.0603341642500000
H     0.0804457665728029    -0.9487458091490196    -0.8195180033891099
H     0.8213572534135087    -2.0692647602062682    -0.1213900489514473
O     0.2651752920000000     0.2617807265000000    -1.9832594340000000
H     0.4970490798466135     1.1239811222728371    -1.6381842769126962
H    -0.5978436276118243     0.3855749341646703    -2.3783609127883198
O     4.5204471919999998     0.2956355870000000    -0.7750704236000000
H     5.3372622222763066     0.4322503131789742    -1.2550511137384266
H     3.9190442325384023    -0.0697783621572159    -1.4239301666201389
O    -0.9853081940000000     2.5414152429999999     0.9498026778000001
H    -0.2753705764781949     2.6741448516188475     0.3216281238555163
H    -0.7471429206039120     1.7396192539293671     1.4152404657571163
O     3.1546535119999999     2.2040996960000001     0.5151488434000000
H     2.9239230898555171     1.7193026137505065     1.3075925961922137
H     3.7630259139553424     1.6292665778024733     0.0507333540347162
O     0.9719617689000000     2.6181939660000002    -0.8556944686000000
H     1.1204263352083026     3.4003778347025535    -1.3870874569733833
H     1.7929918820891813     2.4917497057123188    -0.3801387491760171
O    -2.3797934249999999     0.6684581163000000    -2.4279498589999999
H    -2.8944893238746774    -0.1119426126000995    -2.2222931693111350
H    -2.6955058249296235     1.3325329444515912    -1.8151186072298957
