 57
*****   Energy =     -821.0369191145  kJ/mol
O   -0.2049209   2.8273494   1.7958763
H   -0.5270793   2.0141815   2.1847258
H   -0.0681980   2.6142554   0.8727675
O   -1.1972042   0.0668088  -1.7991029
H   -0.6748327   0.7997853  -1.4733644
H   -1.9257705   0.4789627  -2.2633791
O    2.0261653   0.3578928   2.9358159
H    2.1920280   1.2998261   2.9743272
H    1.0778989   0.2768144   3.0380367
O    2.7929712   0.7888033  -3.1725373
H    2.7249830   1.6754255  -2.8182624
H    3.4221120   0.3493568  -2.6004353
O    1.0283907  -2.7339592   0.2576571
H    1.7743272  -3.0636432   0.7587750
H    1.1673735  -3.0690977  -0.6281183
O    0.4480633   1.9033740  -0.6932624
H    0.9754531   1.1762334  -0.3625681
H    1.0705732   2.4557349  -1.1661375
O    4.3128043  -1.1482216   2.5815416
H    4.8229527  -0.5141394   2.0776364
H    3.5493362  -0.6561911   2.8836251
O    1.9277085  -0.1579013   0.2611581
H    1.5604541  -1.0408788   0.2198425
H    2.0260731   0.0175582   1.1969841
O    3.9359007   2.9298799   0.4807163
H    4.5342465   2.2083003   0.6744611
H    3.4131889   3.0284610   1.2765090
O    4.2316520  -3.1090518  -1.2168860
H    4.0373339  -3.3082091  -0.3010209
H    3.4198252  -3.3082165  -1.6832577
O    3.4374340  -3.4220148   1.4200598
H    3.7258467  -4.1379776   1.9861405
H    3.7750150  -2.6317827   1.8417281
O    2.3047767   3.0794445   2.7085693
H    2.3465496   3.7852755   3.3537744
H    1.4039721   3.1024520   2.3856859
O    4.2218531  -0.4089863  -1.1630677
H    4.3328485  -1.3544308  -1.2633012
H    3.4022123  -0.3136716  -0.6779532
O    5.5283261   0.6973621   0.9044054
H    5.1636954   0.2872288   0.1201432
H    6.4703951   0.7356844   0.7392709
O   -1.2551608  -1.2201518   0.6637989
H   -0.5758461  -1.8863835   0.5594014
H   -1.3423906  -0.8281436  -0.2050811
O   -0.7382917   0.3111077   2.8271480
H   -0.9482847  -0.2273161   2.0641050
H   -1.4038033   0.0793141   3.4749119
O    0.8335221  -1.1205640  -3.2550726
H    1.4866310  -0.4238786  -3.3207242
H    0.0950288  -0.7151656  -2.8006370
O    1.7074164  -3.4679628  -2.2984159
H    1.4502611  -4.1419709  -2.9275552
H    1.4233911  -2.6458209  -2.6979711
O    2.5694837   3.2180491  -1.8422017
H    2.8274339   4.0618723  -2.2132222
H    3.1004829   3.1315998  -1.0504957
57
TIP5P (H2O)19 energy -833.3290 kJ/mol
O     0.1737908355000000     0.3737657493000000    -2.1466175779999999
H     0.0965460702521817     1.0146314964359828    -1.4398246943419593
H     0.9599756787753013     0.6374220228589373    -2.6247709023816310
O    -2.5855184300000000     1.5636655239999999     2.5509084629999998
H    -2.7405060718011138     1.8108609769680974     3.4625581100250109
H    -1.6880907594382613     1.2308420538115930     2.5417458322708395
O     4.2278252800000002    -0.3907933102000000    -1.1449920389999999
H     5.0833539593761490    -0.7008095582182479    -1.4419641668665579
H     3.7452506888167658    -1.1886657302112391    -0.9287671437410501
O     2.9352229230000000    -2.5851469549999999    -0.5127634900000000
H     2.0462302372752648    -2.5810233920843588    -0.8675970297856338
H     2.8156184395032828    -2.6679364547989022     0.4333192263892869
O     2.6766156010000000     1.2305365580000001    -2.6725739350000000
H     3.2811583222258713     0.5973930543960391    -2.2854186146737514
H     2.7540660067255978     2.0066224955209711    -2.1176650305524887
O    -4.1728669429999998    -0.1315629051000000     1.1377837060000000
H    -4.2186316081463664     0.3749619184785333     0.3268767825354282
H    -3.6922653143254176     0.4308140871739907     1.7452259115440334
O     3.9421887039999999     1.3063287269999999     0.9361056181000000
H     4.1769035425297520     0.6845515861326744     0.2472413559490254
H     3.5015396729252712     2.0201597218754004     0.4751223405637104
O    -2.4536082270000001    -0.0779728226100000    -2.7865883779999998
H    -1.5315396961121455     0.1788360767493283    -2.7949939449745673
H    -2.4419174911918127    -1.0069003896871243    -2.5559615325972183
O     0.3226508979000000    -2.0655342000000001    -1.1579914819999999
H     0.3371294326961988    -1.1901431585925768    -1.5449187835099640
H    -0.3279922662151142    -2.5441979887527855    -1.6715830418285287
O     0.0350827455500000     2.0800732680000000    -0.1076910901000000
H    -0.7618574332718679     2.6091981985737873    -0.0738532529254055
H     0.0227837452052321     1.5753982864406384     0.7055639360625060
O    -2.3897999720000001     3.0789290309999999     0.2794590151000000
H    -2.9911613531662185     2.6122651709020062    -0.3009039497076267
H    -2.6195477108886278     2.7751319513367565     1.1576134154554549
O     2.4959531070000001     0.1437962236000000     2.8081466079999999
H     3.0067803772434853     0.5636466974847169     2.1160390155301814
H     2.9572450602525566     0.3677833483996641     3.6163986366324194
O    -2.3083533749999998    -2.6223592359999999    -1.8532638459999999
H    -2.8016534391422967    -3.3288691397330465    -2.2700739258257254
H    -2.6139213174873515    -2.6190192032160513    -0.9461536450293297
O    -3.9162679919999999     1.3384278560000000    -1.1121391150000000
H    -3.3574741242037884     0.8480257681137344    -1.7150379833934823
H    -4.6600035874246730     1.6165564077148227    -1.6466797709087184
O    -0.0936058843300000     0.5889200134000000     2.0966403520000001
H     0.7418330769064880     0.5669162665223857     2.5633194892789706
H    -0.2549232796343306    -0.3218490668265331     1.8502499697292190
O    -0.4286477284000000    -1.9207353270000000     1.3547623760000000
H    -0.1163387396485053    -1.9973791578868016     0.4531967052183234
H    -1.3288334577230245    -2.2448158716219093     1.3252785953614559
O    -3.0292475479999998    -2.4608222999999998     0.7500029175000000
H    -3.5961600482433127    -3.0840034800308533     1.2044116255187050
H    -3.4526858331041690    -1.6122634460397489     0.8799249328542373
O     2.4823280290000000     2.9993274109999999    -0.5902622579000000
H     2.5104913317055741     3.9559185760277336    -0.5709746615853124
H     1.5722150852705798     2.7819167379167595    -0.3886218133317970
O     2.2075075339999999    -2.4533981130000000     2.0810267680000001
H     1.2529758153239379    -2.5214543183403024     2.1026922002828479
H     2.3934142466238404    -1.5776462204368733     2.4197436953501095
