 60
25304   Energy =     -872.9887544952  kJ/mol
O    0.3470450  -0.7178074  -0.3141646
H   -0.4987771  -0.4023865  -0.6324831
H    0.4310626  -1.5958882  -0.6858463
O    1.6727305   1.3910313  -1.4036375
H    1.3457584   0.5950317  -0.9844648
H    2.0394098   1.0910128  -2.2353629
O    2.3018465   0.3812069  -3.8845400
H    3.1099899   0.3801893  -4.3975071
H    2.0321756  -0.5368862  -3.8597484
O    0.1025673  -3.1189675  -1.5785035
H   -0.7300398  -2.8548031  -1.9699297
H   -0.1423526  -3.7271640  -0.8811203
O   -2.8168905   0.4280904   1.3812494
H   -3.4076222  -0.3195473   1.4723865
H   -1.9935236   0.1320979   1.7694340
O   -4.0874498  -2.0205216   1.5782400
H   -3.9284136  -2.5432513   0.7923054
H   -4.9531663  -2.2967179   1.8790432
O   -3.4229815  -3.5842142  -0.5206354
H   -2.6411841  -4.0554473  -0.2326002
H   -3.1633283  -3.1685169  -1.3428324
O   -0.7506626   2.3661529  -2.1609725
H   -0.9151074   3.1344968  -1.6143121
H    0.1319230   2.0846668  -1.9200570
O   -2.0420422   0.1630925  -1.2136159
H   -1.7487716   1.0099069  -1.5499635
H   -2.4304310   0.3644856  -0.3622482
O   -0.2800640   1.1040261  -4.6117443
H    0.6548920   0.9730038  -4.4538758
H   -0.5698339   1.6605327  -3.8888571
O    0.4395343   2.1254982   2.8973441
H    0.8751504   2.4986854   2.1310530
H    0.9424998   2.4534973   3.6427798
O    1.4361964   3.2411346   0.6566335
H    0.7004338   3.7381475   0.2990532
H    1.6959489   2.6531787  -0.0526398
O   -1.0265126  -4.5692310   0.4896893
H   -0.8653801  -5.4371521   0.8597992
H   -1.1597562  -4.0046194   1.2510643
O    1.3071138  -2.1277620  -3.8956797
H    0.4836151  -2.0150491  -4.3704194
H    1.0632203  -2.6034941  -3.1016854
O   -1.1385446  -1.4258139  -5.0114174
H   -0.9184261  -0.5007828  -4.9014301
H   -1.4524214  -1.4922285  -5.9132503
O   -1.9905990   3.0299735   1.8988378
H   -1.2100748   2.7681006   2.3871375
H   -2.4725335   2.2144503   1.7613859
O   -0.9695361   4.3238367  -0.2345309
H   -1.2732431   5.2313581  -0.2145549
H   -1.4117555   3.9064496   0.5046998
O   -2.2412072  -2.1731324  -2.6014442
H   -2.2859870  -1.3195776  -2.1705486
H   -1.9941113  -1.9734685  -3.5043893
O   -1.6276977  -2.9066441   2.5290618
H   -2.5203412  -2.6143057   2.3447852
H   -1.1228631  -2.0977796   2.6133951
O   -0.3997161  -0.4285041   2.2859951
H    0.0022440  -0.5697997   1.4288512
H   -0.0190375   0.3927811   2.5971324
60
TIP5P (H2O)20 energy -881.3449 kJ/mol
O     4.1295616239999999    -2.2289134320000001     1.0062717420000000
H     3.8033109299411660    -1.5848971372600835     1.6347901082675249
H     4.5292907490892977    -2.9104433503749707     1.5466100035687615
O     5.2042479490000000    -0.3725508810000000    -0.6901579847000000
H     5.0655879380779405    -1.1526279973734896    -0.1530500496613193
H     4.6476893449103418    -0.5072642277922801    -1.4571825438959847
O     3.3387205430000000    -0.2547836970000000     2.5717901009999999
H     3.7716016012550106     0.5219175768229896     2.2174160604076230
H     2.4037446474523883    -0.0703489843473830     2.4821477476524398
O     0.0286299775200000     4.0538111079999997    -0.0782767337600000
H     0.1964700551063379     4.5812189540106552    -0.8592392887664569
H     0.8031657902464185     3.4978664917802442     0.0068801714238798
O    -3.3299864659999998    -0.3547216369000000    -2.6219824630000002
H    -3.6056219736933444    -1.0854426290956041    -2.0685353214739965
H    -3.5819703475101186    -0.6161081382094007    -3.5076534292128065
O    -4.3417359089999996     1.5733258139999999    -0.9196855090000000
H    -3.5354739945611700     1.9767178745560248    -0.5980515387701784
H    -4.0743999448511268     1.0955985978089702    -1.7048861388921075
O     4.4108786970000002     1.6186827790000000     0.8471562023000000
H     5.1355974836595157     2.2347616750235217     0.9542137295327836
H     4.7435716443122580     0.9604886496440593     0.2369695661876882
O    -4.1522053359999997    -2.1876916199999998    -0.9088417626000000
H    -3.4626514979694227    -2.5161268531029712    -0.3318862685505041
H    -4.7438326159772179    -1.7096201240164115    -0.3277594566271085
O    -5.2612672810000003    -0.2833332941000000     0.7111678818000000
H    -6.1699478001831292    -0.0810476531968846     0.9339055605647217
H    -4.9745326266030423     0.4573467452385412     0.1769318316374198
O     3.3132623230000000    -0.9103683053000000    -2.5412881110000001
H     2.6938444009186817    -0.1806754895296893    -2.5513713851536375
H     3.5073523110016649    -1.0731772051959940    -3.4643559192742193
O     0.8522462255000000     0.3617565802000000     1.6860264940000000
H     0.0761101177879823     0.6788660435848854     2.1478556513053717
H     0.5474787575693465    -0.4073405492822751     1.2045306623324104
O     1.5812509189999999     1.0588025679999999    -2.4659267100000002
H     1.7397318994717750     1.5536001435474927    -1.6620044637217743
H     0.6746185638610027     0.7613698632288779    -2.3898780496064664
O    -1.8322005820000000     2.1232638730000000    -0.0430316423900000
H    -1.7700983787346594     1.8591389542381265     0.8749079981303471
H    -1.3355224288424816     2.9400613861675517    -0.0918627253120542
O     2.2006170169999999    -2.7023908809999999    -0.8425162978000000
H     2.5847611394748014    -2.1893903385715161    -1.5534984189789691
H     2.8625044607103289    -2.6876950506483235    -0.1511980755398881
O    -0.0084645596020000    -1.5556664529999999     0.0608680286000000
H     0.7210436025814303    -2.0740849144866975    -0.2786786988139450
H    -0.2860682460741295    -1.0176090824279247    -0.6805241073376217
O    -0.8765059637000000     0.2573939051000000    -1.6776131510000001
H    -1.6311615081839645     0.0224604752825043    -2.2175512333148144
H    -1.1989237318375296     0.9525572325437166    -1.1040047733008986
O    -1.5968192569999999     1.1822181080000000     2.4715401520000002
H    -2.2073678164512813     0.4476586000360673     2.5338669184150042
H    -1.7705371505219221     1.7057124744145846     3.2538492864235344
O     1.8948510340000000     2.1188420980000000    -0.0154268002800000
H     1.4963561952750966     1.5042468511548737     0.6007764016469226
H     2.8121560316541077     2.1676252295075007     0.2536523467364876
O    -2.2326436969999999    -2.7015947800000002     0.9367299213000000
H    -2.0080375117091664    -3.5842270884208807     1.2312534511931612
H    -1.4032006672130164    -2.3307895861256447     0.6354665671833873
O    -3.3229663679999999    -0.7951579693000000     2.5212722460000001
H    -4.1014552507677795    -0.5901532136238608     2.0034306200590746
H    -2.9467175717163627    -1.5649253913030838     2.0945090806285713
