 39
*****   Energy =     -532.9705363445  kJ/mol
O    3.1970164   4.1856335  -1.8482353
H    3.2803125   3.3468966  -2.3019028
H    2.2531696   4.3329337  -1.7875062
O    0.1218714  -0.9821375  -2.0719362
H    0.3830533  -1.3634698  -1.2337228
H    0.1293035  -0.0373463  -1.9184879
O    5.1271206   0.3695266  -0.9853339
H    4.6477276  -0.4584126  -1.0158473
H    6.0466143   0.1177398  -1.0711634
O    1.1567957   3.7447415   1.3439454
H    2.0936686   3.9395161   1.3201959
H    1.1117381   2.8001108   1.4918461
O    0.4877748   4.3127488  -1.1992061
H   -0.2355890   4.9379768  -1.2446683
H    0.6465839   4.1971933  -0.2623718
O    1.3334069   0.9642919   1.1233088
H    1.1544848   1.2095221   0.2155197
H    2.2775900   1.0859019   1.2231151
O    3.2739048   1.4959822  -2.6789333
H    3.0215887   0.7258972  -3.1883819
H    3.9892366   1.1907573  -2.1209278
O    3.5783243  -1.8062359  -1.2310251
H    2.8338603  -1.8377432  -0.6301817
H    3.1863393  -1.6550883  -2.0911031
O    3.8490296   4.1609262   0.7697120
H    4.4230432   4.9040502   0.9554725
H    3.6971790   4.2050844  -0.1743344
O    0.8379668   1.6086224  -1.4685569
H    0.5736360   2.5285820  -1.4745241
H    1.6951741   1.6024581  -1.8944557
O    1.3029259  -1.6453096   0.3630383
H    1.0512087  -2.2134172   1.0911346
H    1.2926751  -0.7624840   0.7328298
O    3.9760475   1.4556759   1.2527655
H    4.0617354   2.4028047   1.1439695
H    4.4680214   1.0844963   0.5203590
O    2.3457416  -0.9815801  -3.5754900
H    2.2085114  -1.4576659  -4.3944785
H    1.4988931  -1.0197105  -3.1309388
39
TIP5P (H2O)13 energy -535.4792 kJ/mol
O    -0.0080446352030000    -1.9512306530000001     0.0236875106100000
H    -0.0359889476978080    -1.4233851064241512     0.8217038226984411
H    -0.8186940214137925    -2.4598294575601463     0.0438535373891169
O     0.0373011311900000    -0.4760021228000000     2.2781090260000001
H     0.7983644324264487     0.0935342845117558     2.1656689430335749
H     0.2025334763464957    -0.9378638706923674     3.1000663472447787
O     1.3086791010000001     2.7800365849999999    -0.0106678169800000
H     1.5304714459678095     3.7108451843933210    -0.0358739076948440
H     0.3517273978188624     2.7609799337643359    -0.0212565762275644
O    -1.3241666900000000     2.7283593680000000    -0.0339707909000000
H    -1.6746223300328591     2.2425678013344155     0.7126343511434743
H    -1.6696203209204847     2.2716403642604104    -0.8009788615922002
O    -3.5580694810000000    -0.4106886282000000    -0.0443872589300000
H    -3.2359285466890517     0.0928495700849604     0.7032131298534765
H    -3.2260820878523107     0.0577890200006981    -0.8102494553644136
O    -2.1837372190000002     0.9856648347000000    -1.9191766250000000
H    -2.5103807326362637     1.2145873163710177    -2.7893090013571489
H    -1.4093470213177970     0.4486947226235171    -2.0871491241487843
O     3.6012186260000001    -0.4129513363000000     0.0419363561900000
H     4.5518668506161770    -0.5204580170372242     0.0726301117597548
H     3.2600156042629265    -1.3061486685315611    -0.0029062981907671
O     2.1526046690000000     0.9995478738000000     1.8427515649999999
H     2.7836947275879358     0.5101998533458055     1.3150246537769343
H     1.9139041935673349     1.7491719735927607     1.2974831613324911
O     2.5147772650000002    -2.8248182239999999    -0.1681265924000000
H     1.5821220092745218    -2.6589949716241703    -0.0306905602281396
H     2.5560234833213764    -3.2819619601337928    -1.0080969454410009
O    -2.5219562670000002    -2.8449072759999998     0.1538800417000000
H    -2.9857352394861456    -2.0077570490747814     0.1359802584959773
H    -2.9335721213731611    -3.3621458788415963    -0.5384121337282127
O     2.1654405109999999     0.9505642425000000    -1.8047812130000001
H     2.7982992695979050     0.4857132041884107    -1.2573918234000954
H     1.9062645669842320     1.7086652652062138    -1.2810040567442800
O    -0.0451375408400000    -0.4874388786000000    -2.2352728669999999
H     0.0201763103383360    -1.0608940205725808    -1.4716531049525123
H     0.7700465102022414     0.0142268750805474    -2.2290862273232848
O    -2.1751670280000002     0.9655212341000000     1.8307841499999999
H    -2.5324373144067605     1.2079826554699262     2.6850687873417391
H    -1.4129813315270667     0.4234767366384246     2.0344813931421157
